LAMMPS data file via write_data, version 31 Mar 2017, timestep = 845672

7452 atoms
10 atom types
7679 bonds
15 bond types
13802 angles
37 angle types
19575 dihedrals
57 dihedral types
2100 impropers
6 improper types

2.1022641702375601e+01 6.4477358297618679e+01 xlo xhi
2.1022641702375601e+01 6.4477358297618679e+01 ylo yhi
2.1022641702375601e+01 6.4477358297618679e+01 zlo zhi

Masses

1 12.0107
2 15.9994
3 12.0107
4 12.0107
5 1.00794
6 1.00794
7 14.0067
8 12.0107
9 15.9994
10 1.00794

Pair Coeffs # lj/charmm/coul/long

1 0.0951 3.47299 0.0951 3.47299
2 0.0957 3.03315 0.0957 3.03315
3 0.0951 3.47299 0.0951 3.47299
4 0.0951 3.47299 0.0951 3.47299
5 0.0152 2.42 0.0152 2.42
6 0.0001 2.84642 0.0001 2.84642
7 0.0774 3.26256 0.0774 3.26256
8 0.0951 3.47299 0.0951 3.47299
9 0.0957 3.03315 0.0957 3.03315
10 0.0152 2.4 0.0152 2.4

Bond Coeffs # harmonic

1 525 1.39
2 350 1.46
3 350 1.02
4 350 1.35
5 350 1.42
6 350 1.53
7 350 1.09
8 350 1.43
9 350 0.99
10 350 0.98
11 350 1.316
12 350 1.53
13 350 1.09
14 350 1.42
15 350 1.5

Angle Coeffs # harmonic

1 50 120
2 50 120
3 50 120
4 50 120
5 50 104.51
6 50 109.47
7 50 109.47
8 50 109.47
9 50 109.47
10 50 109.47
11 50 109.47
12 50 109.47
13 50 109.47
14 50 120
15 50 120
16 50 104.51
17 50 109.47
18 50 109.47
19 50 109.47
20 50 120
21 50 104.51
22 50 120
23 50 120
24 50 109.47
25 50 109.47
26 50 120
27 50 109.47
28 50 109.47
29 50 109.47
30 50 109.47
31 50 109.47
32 50 109.47
33 50 109.47
34 50 109.47
35 50 104.51
36 50 109.47
37 50 109.47

Dihedral Coeffs # charmm

1 3.125 2 -180 0
2 3.125 2 -180 0
3 3.125 2 -180 0
4 3.125 2 -180 0
5 0.0833 6 -180 0
6 0.0833 6 -180 0
7 3.125 2 -180 0
8 3.125 2 -180 0
9 3.125 2 -180 0
10 3.125 2 -180 0
11 0.1667 2 -180 0
12 3.125 2 -180 0
13 3.125 2 -180 0
14 0.3333 3 0 0
15 0.3333 3 0 0
16 0.1111 3 0 0
17 0.1111 3 0 0
18 0.1111 3 0 0
19 0.1111 3 0 0
20 0.1111 3 0 0
21 0.1111 3 0 0
22 0.1667 3 0 0
23 0.1667 3 0 0
24 0.1667 3 0 0
25 0.3333 3 0 0
26 0.3333 3 0 0
27 0.3333 3 0 0
28 0.0833 6 -180 0
29 0.0833 6 -180 0
30 0.1111 3 0 0
31 0.1111 3 0 0
32 0.1667 2 -180 0
33 0.3333 3 0 0
34 0.3333 3 0 0
35 0.3333 3 0 0
36 0.1667 3 0 0
37 0.1667 3 0 0
38 0.1667 3 0 0
39 0.1111 3 0 0
40 0.1111 3 0 0
41 0.1111 3 0 0
42 0.1111 3 0 0
43 0.1111 3 0 0
44 0.1111 3 0 0
45 0.1111 3 0 0
46 0.1111 3 0 0
47 0.3333 3 0 0
48 0.3333 3 0 0
49 0.3333 3 0 0
50 0.3333 3 0 0
51 0.1111 3 0 0
52 0.1111 3 0 0
53 0.1111 3 0 0
54 0.1111 3 0 0
55 0.1111 3 0 0
56 0.1111 3 0 0
57 0 0 0 0

Improper Coeffs # harmonic

1 20 0
2 20 0
3 20 0
4 20 0
5 20 0
6 20 0

Atoms # full

2876 11 5 6.4336485759000001e-02 2.3042605737978874e+01 2.4022573307350079e+01 2.7168675285781571e+01 0 0 0
2942 11 1 -5.5302512302000000e-02 2.2391401882090143e+01 2.4085993552624924e+01 2.4025360833519738e+01 0 0 0
2947 11 1 -3.1393163308000002e-02 2.2555393616484128e+01 2.3153693937558309e+01 2.2989546610889775e+01 0 0 0
2869 11 2 -3.4184631745499999e-01 2.5300157628092769e+01 2.4251168814383526e+01 2.5280489498882488e+01 0 0 0
2865 11 1 -3.1393163308000002e-02 2.3246232457944494e+01 2.4977766766158993e+01 2.6876479917397848e+01 0 0 0
2936 11 1 -3.7253387674000001e-02 2.2757140854161499e+01 2.5480982604127995e+01 2.3962877169732511e+01 0 0 0
2866 11 1 7.6316132740000001e-02 2.4534234227201114e+01 2.5272856191120685e+01 2.5757341745025599e+01 0 0 0
2880 11 5 5.9378388866999997e-02 2.5702290722547879e+01 2.3452625760579366e+01 2.7135338273295641e+01 0 0 0
2870 11 3 8.3153783873000001e-02 2.6248001008619035e+01 2.3872704426691751e+01 2.6290822634077657e+01 0 0 0
6941 26 5 6.4336485759000001e-02 2.3977237542295782e+01 2.4302151660368462e+01 3.1068451510226872e+01 1 1 1
2881 11 5 6.5505407348999997e-02 2.6681196866342429e+01 2.1984727265713218e+01 2.5360479295547698e+01 0 0 0
2864 11 1 -5.5302512302000000e-02 2.2376937473495481e+01 2.6307011736077577e+01 2.7580047480137708e+01 0 0 0
2957 11 3 -5.1743496611000001e-02 2.4638106252343938e+01 2.6680349832018056e+01 2.7570479996264105e+01 0 0 0
2946 11 1 -5.5302512302000000e-02 2.3498386396787719e+01 2.5746848214965638e+01 2.2762466278766471e+01 0 0 0
2961 11 5 2.4129151896000001e-02 2.4294963337318698e+01 2.6984603819232063e+01 2.8541712928544641e+01 0 0 0
2959 11 5 2.4129151896000001e-02 2.5124472967382005e+01 2.5743678462737083e+01 2.7879348990960562e+01 0 0 0
2925 11 3 1.5067359031000000e-02 2.2590676864629184e+01 2.6518721366063140e+01 2.5240078153329755e+01 0 0 0
2867 11 1 -3.1393167032999998e-02 2.4894830850078002e+01 2.6894657563994777e+01 2.5287565637885756e+01 0 0 0
2951 11 5 6.2135193094999999e-02 2.3985285472179626e+01 2.6620190370388034e+01 2.2637374394799561e+01 0 0 0
2877 11 5 6.4336485759000001e-02 2.5659820486630952e+01 2.7073204226562737e+01 2.4638143537496983e+01 0 0 0
2879 11 5 5.9378388866999997e-02 2.6817015762888030e+01 2.4742338772015259e+01 2.6629890554551203e+01 0 0 0
2871 11 3 9.0926356212000001e-02 2.7249180923637610e+01 2.2816650498800882e+01 2.5776832176172931e+01 0 0 0
2960 11 5 2.4129151896000001e-02 2.5528811819157120e+01 2.7307605685406489e+01 2.7420187306008568e+01 0 0 0
2825 11 5 6.4336485759000001e-02 2.3208397414828681e+01 2.7374022860506155e+01 3.0165997998283100e+01 0 0 0
2941 11 1 -3.1393163308000002e-02 2.3674038194896500e+01 2.4838582197641877e+01 2.1701560557815807e+01 0 0 0
2953 11 1 7.6316132740000001e-02 2.3169093985187342e+01 2.3537712917380180e+01 2.1794805646686978e+01 0 0 0
6932 26 5 5.1556210562999999e-02 2.6194228315835673e+01 2.2644278673400422e+01 2.8967969858658861e+01 1 1 1
6931 26 4 -9.0650946304000002e-02 2.6911853616353390e+01 2.1987438634492104e+01 2.9136640774316742e+01 1 1 1
2875 11 5 6.2135193094999999e-02 2.1726200565365168e+01 2.6073191364467945e+01 2.8317073114767712e+01 0 0 0
2454 9 7 -2.8792402076099999e-01 2.7441848467246647e+01 2.1401526939581103e+01 2.7843195882199176e+01 2 0 0
6924 26 2 -3.4184631745499999e-01 2.6526908297024033e+01 2.4529425036169904e+01 3.0718916207010150e+01 1 1 1
2948 11 5 6.2135193094999999e-02 2.1985860180741732e+01 2.3711654445059622e+01 2.4878657611424593e+01 0 0 0
2952 11 5 6.4336485759000001e-02 2.2233741065586887e+01 2.2193764297136280e+01 2.3109772629066395e+01 0 0 0
6344 23 10 2.5523974349999999e-02 2.2393709751182740e+01 2.2829180908698056e+01 3.1279036571388744e+01 0 -1 0
1507 6 5 5.9378388866999997e-02 3.9292047228426007e+01 2.8183481355479920e+01 3.1164122874589292e+01 0 0 -1
6487 24 5 5.1556210562999999e-02 2.7008565462274149e+01 2.1513263222645097e+01 2.2040449522867711e+01 1 0 0
6942 26 3 8.3153776422999995e-02 2.7231450294470353e+01 2.3367730678402964e+01 3.1188657638889921e+01 1 1 1
6937 26 5 5.1556210562999999e-02 2.6548500147902857e+01 2.1299829689196280e+01 2.9776811826669590e+01 1 1 1
2472 9 10 5.8541652536000001e-02 2.3335388541989545e+01 2.1336308033695136e+01 2.5011076874796103e+01 2 0 0
6482 24 5 5.1556210562999999e-02 2.7909093729779425e+01 2.1176909661913548e+01 2.3330206431995734e+01 1 0 0
2914 11 1 -3.7253391399000003e-02 2.2088046830154859e+01 2.7761631221029081e+01 2.4267042098245991e+01 0 0 0
2873 11 2 -3.8603246252200002e-01 2.8055527225690660e+01 2.3375460330812707e+01 2.4736012218267074e+01 0 0 0
2872 11 4 -9.0650946304000002e-02 2.8112198753503680e+01 2.2313792838248002e+01 2.6838354950059504e+01 0 0 0
6936 26 3 9.0926363662000007e-02 2.7888087841645294e+01 2.2648692202759062e+01 2.9991336730519819e+01 1 1 1
1971 8 5 6.4336485759000001e-02 2.7847104339139424e+01 2.7945775508835272e+01 2.4894779205571265e+01 1 1 0
2822 11 2 -3.8603246252200002e-01 2.7278677037670480e+01 2.6977672352560912e+01 2.9420441753140995e+01 0 0 0
6943 26 5 6.5505407348999997e-02 2.8422221251716643e+01 2.3401234889078701e+01 2.9409949311409179e+01 1 1 1
1524 6 3 8.3153776422999995e-02 3.8783480954406237e+01 2.8884945733588726e+01 3.1827156026603436e+01 0 0 -1
2863 11 1 -3.7253391399000003e-02 2.2717577950020900e+01 2.7963984825793403e+01 2.7140834388615357e+01 0 0 0
1572 6 5 6.4336485759000001e-02 4.1596754073359698e+01 3.4835362146467787e+01 2.7565254802728536e+01 0 0 -1
6930 26 5 5.9378388866999997e-02 2.6555755444046294e+01 2.2675172181727220e+01 3.1696164912585722e+01 1 1 1
2473 9 10 5.9258569753000000e-02 2.4899144843731214e+01 2.1140393721491652e+01 2.3201030210057258e+01 2 0 0
6798 25 5 5.1556210562999999e-02 4.1595358564119216e+01 2.1413727820475213e+01 3.0433291560457835e+01 0 0 0
1601 6 8 -2.6692603647000001e-02 3.8783405805479894e+01 3.2827430049780695e+01 2.6860854254196653e+01 0 0 -1
6928 26 1 -3.1393163308000002e-02 2.4419453698403810e+01 2.4900070319131906e+01 3.1764494962551993e+01 1 1 1
2833 11 6 2.1028259356400000e-01 2.8163250568857656e+01 2.6570267519566915e+01 2.9482168358889364e+01 0 0 0
2884 11 6 2.1028259356400000e-01 2.8514714215946231e+01 2.4142943646165175e+01 2.5142177787467507e+01 0 0 0
6927 26 6 2.1028259356400000e-01 2.9279267506670113e+01 2.1362464181642025e+01 2.9681784687904070e+01 1 1 1
6486 24 3 9.0926363662000007e-02 2.8796612017003753e+01 2.1152548895743127e+01 2.1557203428523945e+01 1 0 0
6493 24 5 6.5505407348999997e-02 2.8786915912286393e+01 2.2225253566112016e+01 2.1351953028202875e+01 1 0 0
2882 11 5 5.1556210562999999e-02 2.8816459081136575e+01 2.1839622530513825e+01 2.6294271608542655e+01 0 0 0
2883 11 5 5.1556210562999999e-02 2.8546072062147370e+01 2.3097764348588790e+01 2.7254009390268415e+01 0 0 0
6489 24 5 6.4336485759000001e-02 3.2822521363049809e+01 2.2490351909798726e+01 2.2758412155153838e+01 1 0 0
7175 26 10 2.6211133947999999e-02 3.3513275001128619e+01 2.2954148452736451e+01 3.1668088535033974e+01 2 1 0
1975 8 5 6.5505407348999997e-02 2.9067124657406051e+01 2.7340699757683318e+01 2.6968254212431884e+01 1 1 0
1959 8 6 2.1028259356400000e-01 2.9595764905557804e+01 2.5302923297931365e+01 2.7664910350848924e+01 1 1 0
6499 24 5 2.4129151896000001e-02 3.4894983844138494e+01 2.6039595413966769e+01 2.1359633566265199e+01 1 0 0
7176 26 10 2.6211133947999999e-02 3.3016543149161734e+01 2.3436117388487379e+01 3.0031799072981261e+01 2 1 0
1958 8 2 -3.8603246252200002e-01 3.0284274827753475e+01 2.5703811733140160e+01 2.7093680731652466e+01 1 1 0
6436 24 5 5.1556210562999999e-02 3.4484175905894745e+01 2.4530905306918967e+01 2.7773195109755388e+01 1 0 0
6441 24 3 8.3153776422999995e-02 3.4875903716121364e+01 2.6217990920853982e+01 2.6162115916771857e+01 1 0 0
6424 24 5 5.9378388866999997e-02 3.5047585293342934e+01 2.7170315961600242e+01 2.5658046931813697e+01 1 0 0
1964 8 5 5.1556210562999999e-02 2.9959272755573753e+01 2.6779235529603945e+01 2.9181508475657637e+01 1 1 0
1963 8 4 -9.0650946304000002e-02 3.0323645260779983e+01 2.7501297383945847e+01 2.8616803192692725e+01 1 1 0
1969 8 5 5.1556210562999999e-02 3.1326810133336039e+01 2.7432431921275036e+01 2.8677590667859569e+01 1 1 0
1968 8 3 9.0926363662000007e-02 3.0101237021989395e+01 2.7114212142137767e+01 2.7227870831245433e+01 1 1 0
6485 24 5 6.2135193094999999e-02 3.3852762305262495e+01 2.4464324445004053e+01 2.2001249625209830e+01 1 0 0
6429 24 5 5.9378388866999997e-02 3.3947696879154570e+01 2.5773542375184206e+01 2.5797531014672725e+01 1 0 0
7174 26 10 2.6211133947999999e-02 3.4522054466156824e+01 2.2524026251394513e+01 3.0274950984824414e+01 2 1 0
1957 8 5 5.9378388866999997e-02 3.1921471736882328e+01 2.7216793796854478e+01 2.6088397742744878e+01 1 1 0
6552 24 5 2.4129151896000001e-02 3.1434781686642562e+01 2.6915798279477411e+01 2.1720651944047273e+01 1 0 0
6484 24 1 -3.1393163308000002e-02 3.2605444172046646e+01 2.2836154233738132e+01 2.1824247469123126e+01 1 0 0
6479 24 1 -5.5302512302000000e-02 3.3216615576503429e+01 2.4012148826825488e+01 2.1352849482971237e+01 1 0 0
6500 24 5 2.4129151896000001e-02 3.3274164577480903e+01 2.6574549175172390e+01 2.1374758183843056e+01 1 0 0
6425 24 2 -3.8603246252200002e-01 3.3851937391319410e+01 2.7523134581596938e+01 2.7941428941118211e+01 1 0 0
7158 26 8 -2.6692605788000000e-02 3.3870411410618004e+01 2.3290191227916548e+01 3.0694336019471180e+01 2 1 0
6550 24 5 2.4129151896000001e-02 2.9806963168321484e+01 2.7278731296906660e+01 2.1279503578725375e+01 1 0 0
7154 26 8 1.4759956372399999e-01 3.4651709389672753e+01 2.4613651406636247e+01 3.0854683053330227e+01 2 1 0
6480 24 5 5.9378388866999997e-02 3.0307279857704280e+01 2.1586447322371406e+01 2.3051902768233088e+01 1 0 0
6430 24 4 -9.0650946304000002e-02 3.4394042152031936e+01 2.5268655148154583e+01 2.8452876384794330e+01 1 0 0
6435 24 3 9.0926363662000007e-02 3.4770780500074210e+01 2.6461515656790382e+01 2.7684966709005195e+01 1 0 0
6431 24 5 5.1556210562999999e-02 3.3427680417855996e+01 2.5350930854744792e+01 2.8641731995787577e+01 1 0 0
7155 26 7 -2.8792419957499998e-01 3.5229367789246943e+01 2.4972408052718013e+01 2.9686629010469737e+01 2 1 0
7165 26 10 5.9258569753000000e-02 3.3006192210116545e+01 2.6016964825999882e+01 3.0703006717213054e+01 2 1 0
1974 8 3 8.3153776422999995e-02 3.1038915882943453e+01 2.7841872677009324e+01 2.6227126907989788e+01 1 1 0
1956 8 2 -3.4184631745499999e-01 3.0452060262736747e+01 2.8064150577600117e+01 2.4925715968404738e+01 1 1 0
6926 26 2 -3.8603246252200002e-01 2.8831518338783315e+01 2.1701758383836008e+01 3.0486379481379949e+01 1 1 1
6345 23 10 2.5523974349999999e-02 2.3688367690439865e+01 2.1702219289341716e+01 3.1738030930329721e+01 0 -1 0
6442 24 5 6.5505407348999997e-02 3.5754359409943262e+01 2.6805866304321452e+01 2.8003949281434149e+01 1 0 0
7167 26 10 7.3109538084000003e-02 3.5429171737311130e+01 2.4423927426072368e+01 3.1596838154744429e+01 2 1 0
6426 24 6 2.1028259356400000e-01 3.3979183476783533e+01 2.7721528234232149e+01 2.8893950465099831e+01 1 0 0
7153 26 8 8.3362214988000005e-02 3.3757514385447685e+01 2.5734556844412531e+01 3.1442384337368022e+01 2 1 0
1678 7 6 2.1028259356400000e-01 3.2534343065873657e+01 2.1385856971081772e+01 2.4886729733902403e+01 0 0 0
2958 11 3 -5.1743496611000001e-02 2.1047004801229200e+01 2.5951046602429557e+01 2.5438142286685064e+01 0 0 0
7166 26 10 5.9258569753000000e-02 3.4387400094177188e+01 2.6600711414736125e+01 3.1653506672325122e+01 2 1 0
2479 9 10 2.5523974349999999e-02 2.2747397499330479e+01 2.1314748686155582e+01 2.7617355895653088e+01 2 0 0
498 2 10 7.3109707863000001e-02 4.2050609996145965e+01 3.4368258877867923e+01 2.1792410969863546e+01 1 -1 -1
6440 24 5 6.4336485759000001e-02 3.5236998926502167e+01 2.3082143506905659e+01 2.4914283124095427e+01 1 0 0
6784 25 2 -3.4184631745499999e-01 4.0213878199775365e+01 2.1088723525456217e+01 2.6267303548742383e+01 0 0 0
753 3 5 2.4129151896000001e-02 4.1948611159632513e+01 2.4817083006639454e+01 2.2003182667643912e+01 0 0 -1
683 3 1 -5.5302512302000000e-02 4.2142515680267486e+01 2.6287232477511992e+01 2.6441932330380062e+01 0 0 -1
644 3 5 6.4336485759000001e-02 4.2601764371735328e+01 2.4194301221612626e+01 3.0643367480338519e+01 0 0 -1
6437 24 5 6.2135193094999999e-02 3.5593006977896700e+01 2.2345464193002233e+01 2.2665810624195718e+01 1 0 0
6423 24 2 -3.4184631745499999e-01 3.5991382747025277e+01 2.5339461847660747e+01 2.5949463305666022e+01 1 0 0
6427 24 1 -3.1393163308000002e-02 3.5717692598042795e+01 2.3689402018971609e+01 2.4250738556966258e+01 1 0 0
6439 24 1 7.6316132740000001e-02 3.6155139512761984e+01 2.4956849443278152e+01 2.4660257899186885e+01 1 0 0
6432 24 1 -5.5302512302000000e-02 3.5944717536460907e+01 2.3260342728761408e+01 2.2932051550829581e+01 1 0 0
6434 24 5 6.2135193094999999e-02 3.7611575252146693e+01 2.5942802854092243e+01 2.1824639530228595e+01 1 0 0
6422 24 1 -3.7253387674000001e-02 3.6605235663602919e+01 2.4078752254780337e+01 2.1978841661727373e+01 1 0 0
681 3 6 2.1028259356400000e-01 3.6338062524606812e+01 2.2440738987913953e+01 2.9469015399316216e+01 0 0 -1
6433 24 1 -3.1393163308000002e-02 3.6857119662336672e+01 2.5768361450891906e+01 2.3758864539766293e+01 1 0 0
6438 24 5 6.4336485759000001e-02 3.7204892881832677e+01 2.6672809063615393e+01 2.4067275528738264e+01 1 0 0
697 3 5 6.5505407348999997e-02 3.6602289026651675e+01 2.3827190784831838e+01 2.7788580764967936e+01 0 0 -1
6428 24 1 -5.5302512302000000e-02 3.7087819144754306e+01 2.5329324932319071e+01 2.2445301720474564e+01 1 0 0
685 3 4 -9.0650946304000002e-02 3.6740305609771845e+01 2.4943761762365295e+01 2.9549666622152806e+01 0 0 -1
686 3 5 5.1556210562999999e-02 3.7085506211780434e+01 2.5808242462213393e+01 2.9221321849511000e+01 0 0 -1
694 3 1 7.6316132740000001e-02 3.9859459847548145e+01 2.5479637616395788e+01 2.6581018894462400e+01 0 0 -1
682 3 1 -3.1393163308000002e-02 4.0030297481480559e+01 2.4881573996365635e+01 2.5323542134563180e+01 0 0 -1
695 3 5 6.4336485759000001e-02 3.9266695732130351e+01 2.4347140358127064e+01 2.4908630092100552e+01 0 0 -1
678 3 2 -3.4184631745499999e-01 3.8681872568089396e+01 2.5368256761309777e+01 2.7258708476588446e+01 0 0 -1
696 3 3 8.3153776422999995e-02 3.8673998281574157e+01 2.4202260383223361e+01 2.8106248183227578e+01 0 0 -1
684 3 5 5.9378388866999997e-02 3.9364418058882102e+01 2.4337971600395342e+01 2.8940548244104924e+01 0 0 -1
656 3 1 -5.5302512302000000e-02 4.2020534072788934e+01 2.7453000800512655e+01 2.3047819435089643e+01 0 0 -1
688 3 1 -3.1393163308000002e-02 4.0921479861773562e+01 2.6206789531782153e+01 2.7129405251462288e+01 0 0 -1
687 3 1 -5.5302512302000000e-02 4.1265641515839157e+01 2.4978315298906878e+01 2.4656540274669176e+01 0 0 -1
693 3 5 6.4336485759000001e-02 4.0815191611633168e+01 2.6656553474719580e+01 2.8038787559896200e+01 0 0 -1
692 3 5 6.2135193094999999e-02 4.1352758544919269e+01 2.4456142191107070e+01 2.3792769893799239e+01 0 0 -1
691 3 5 5.1556210562999999e-02 3.7239715949748600e+01 2.4731600310321735e+01 3.0398163320497865e+01 0 0 -1
690 3 3 9.0926363662000007e-02 3.7259298774309762e+01 2.3913259353024838e+01 2.8654152366656177e+01 0 0 -1
679 3 5 5.9378388866999997e-02 3.8980486287348668e+01 2.3325670395644039e+01 2.7530981373371969e+01 0 0 -1
680 3 2 -3.8603246252200002e-01 3.7283941107400388e+01 2.2650208089125542e+01 2.9318524011008122e+01 0 0 -1
6796 25 5 6.5505407348999997e-02 4.0756792176258294e+01 2.2274772348375951e+01 2.8462727871402500e+01 0 0 0
667 3 5 6.2135193094999999e-02 4.1647369412330264e+01 2.7770752359165467e+01 2.3941681751352991e+01 0 0 -1
751 3 5 2.4129151896000001e-02 4.0642956502972005e+01 2.5913641701648146e+01 2.2111919095227446e+01 0 0 -1
749 3 3 -5.1743496611000001e-02 4.1587424171387482e+01 2.5756890548998843e+01 2.1568551520983707e+01 0 0 -1
657 3 1 -3.1393163308000002e-02 4.1255266300535254e+01 2.8046961030405054e+01 2.1617245025304737e+01 0 0 -1
4504 17 5 5.1556210562999999e-02 2.3796100117671219e+01 3.5360690931948625e+01 2.6396250358029761e+01 0 1 1
627 3 2 -3.4184631745499999e-01 4.1770066978478411e+01 2.6514958876481952e+01 3.1460284375497306e+01 0 0 -1
6786 25 3 9.0926356212000001e-02 4.1166991506650866e+01 2.1264993970686767e+01 2.8511315175519940e+01 0 0 0
6788 25 2 -3.8603246252200002e-01 4.2544383568521653e+01 2.1326281949552993e+01 2.8142101935941945e+01 0 0 0
677 3 1 -3.7253387674000001e-02 4.2397711752439868e+01 2.5688457616785431e+01 2.5163345074179624e+01 0 0 -1
6799 25 6 2.1028259356400000e-01 4.2530981214702116e+01 2.1668795715753369e+01 2.7221547977380247e+01 0 0 0
1549 6 5 6.2135193094999999e-02 3.6523876535269011e+01 3.5259974005922778e+01 3.1865801247523425e+01 0 0 -1
1508 6 2 -3.8603246252200002e-01 3.6663880931476136e+01 2.8182648360362005e+01 3.0827722513541715e+01 0 0 -1
1509 6 6 2.1028259356400000e-01 3.7223340702522641e+01 2.7565732114321698e+01 3.0308709884432695e+01 0 0 -1
1583 6 5 2.4129151896000001e-02 3.8249651162646479e+01 3.4766859581906886e+01 3.0345440692473566e+01 0 0 -1
6512 24 2 -3.8603246252200002e-01 3.8964779529286417e+01 2.8253224263040224e+01 2.3765020376530018e+01 1 0 0
2832 11 5 5.1556210562999999e-02 2.7878874864895455e+01 2.8893070296725167e+01 2.8041258592198542e+01 0 0 0
2933 11 5 5.1556210562999999e-02 2.2825429793268249e+01 3.4649835217322213e+01 2.1174882024937528e+01 0 0 0
2813 11 1 -5.5302512302000000e-02 2.1263131198657682e+01 2.8767167467240775e+01 3.0102099712326474e+01 0 0 0
2829 11 5 5.9378388866999997e-02 2.5476397186236436e+01 2.8186606670956046e+01 3.0749363835496343e+01 0 0 0
1594 6 9 -3.7397870507699998e-01 3.6347605483512439e+01 3.1428951145779234e+01 2.7936733814682672e+01 0 0 -1
2935 11 6 2.1028259356400000e-01 2.1244118370406138e+01 3.4737096094286642e+01 2.2910097479211807e+01 0 0 0
2908 11 5 2.4129151896000001e-02 2.2661148437596701e+01 2.9725230210665526e+01 3.1588351305050054e+01 0 0 0
2906 11 3 -5.1743496611000001e-02 2.2766056464120510e+01 3.0397128116607597e+01 3.0723115633952222e+01 0 0 0
2828 11 5 5.9378388866999997e-02 2.6113259250939763e+01 2.9840585483263460e+01 3.0666159232376586e+01 0 0 0
2917 11 1 7.6316132740000001e-02 2.1316031063820514e+01 3.0017450126605908e+01 2.2510259002852486e+01 0 0 0
2814 11 1 -3.1393163308000002e-02 2.2891191433509096e+01 2.8281312538806642e+01 2.9826031826040374e+01 0 0 0
2820 11 3 9.0926356212000001e-02 2.7437502639345126e+01 2.8313957202398083e+01 2.9885208964957044e+01 0 0 0
2819 11 3 8.3153783873000001e-02 2.6022075104107408e+01 2.8897402069531555e+01 3.0125372540322381e+01 0 0 0
2868 11 1 -5.5302512302000000e-02 2.4021586146598160e+01 2.8219622284324778e+01 2.5995386640430603e+01 0 0 0
2926 11 5 6.2135193094999999e-02 2.3989515862747929e+01 2.8361390146287984e+01 2.3511468461717556e+01 0 0 0
2817 11 1 -5.5302512302000000e-02 2.1843393815933581e+01 3.1415677344781781e+01 2.8867735087885293e+01 0 0 0
2915 11 1 -5.5302512302000000e-02 2.2994125642252939e+01 2.8558378995045480e+01 2.3477938070036192e+01 0 0 0
1980 8 5 2.4129151896000001e-02 2.5024848308156759e+01 3.1411787041304954e+01 2.5735224135405602e+01 1 1 0
1937 8 1 -3.1393167032999998e-02 2.6841819318186992e+01 3.2623845171464637e+01 2.9033375802676233e+01 1 1 0
1947 8 5 6.4336485759000001e-02 2.6585482838846886e+01 3.2004927923362025e+01 2.9802428171222331e+01 1 1 0
1936 8 1 7.6316132740000001e-02 2.7330026906121994e+01 3.3913554753683648e+01 2.9306427187074220e+01 1 1 0
1967 8 5 6.2135193094999999e-02 2.6314126001937769e+01 2.9784502599693301e+01 2.4979083512564848e+01 1 1 0
2911 11 5 2.4129151896000001e-02 2.1568022469106438e+01 3.1101613016487935e+01 2.6581738570485349e+01 0 0 0
2916 11 1 -3.1393163308000002e-02 2.2652572162499361e+01 2.9633920412475913e+01 2.2638862108999390e+01 0 0 0
2907 11 3 -5.1743496611000001e-02 2.2128050972333316e+01 3.0169938853254255e+01 2.6539856901147761e+01 0 0 0
2816 11 1 -3.1393167032999998e-02 2.3477292388820967e+01 3.0941176624931618e+01 2.8600933523718968e+01 0 0 0
2874 11 3 1.5067359031000000e-02 2.1963339353171673e+01 2.9263041902852365e+01 2.7917408412382187e+01 0 0 0
2878 11 5 6.2135193094999999e-02 2.4338956027750356e+01 2.9153677205626124e+01 2.5755364081453962e+01 0 0 0
2913 11 5 2.4129151896000001e-02 2.3147128463298973e+01 3.0484407674559648e+01 2.6346042266090393e+01 0 0 0
2815 11 1 7.6316132740000001e-02 2.4006185276360124e+01 2.9379699631898934e+01 2.9065846879563839e+01 0 0 0
2818 11 2 -3.4184631745499999e-01 2.5328783341995582e+01 2.9120086448430751e+01 2.8888063376092713e+01 0 0 0
2826 11 5 6.4336485759000001e-02 2.4132771652175524e+01 3.1597145495024289e+01 2.8180913575579670e+01 0 0 0
2912 11 5 2.4129151896000001e-02 2.1784397682977175e+01 2.9680270396209782e+01 2.5648836389851251e+01 0 0 0
2927 11 5 6.4336485759000001e-02 2.3377908284511800e+01 3.0131748897863176e+01 2.2122158492379256e+01 0 0 0
2932 11 5 6.5505407348999997e-02 2.2988662433323064e+01 3.2551920075742061e+01 2.2455228138408753e+01 0 0 0
2922 11 3 9.0926356212000001e-02 2.2128896750771556e+01 3.3171215856473239e+01 2.2196886883655679e+01 0 0 0
1938 8 1 -5.5302512302000000e-02 2.6716334581387905e+01 3.2181251571304905e+01 2.7707434926257434e+01 1 1 0
1976 8 3 -5.1743496611000001e-02 2.5343924623380381e+01 3.2160728553169179e+01 2.5011326610364893e+01 1 1 0
1948 8 5 6.2135193094999999e-02 2.6378440580507476e+01 3.1232638219655833e+01 2.7539200758050754e+01 1 1 0
1979 8 5 2.4129151896000001e-02 2.5175644083790775e+01 3.1768057057878135e+01 2.4006797200750349e+01 1 1 0
1978 8 5 2.4129151896000001e-02 2.4734976253217962e+01 3.3056402252176930e+01 2.5146504560840853e+01 1 1 0
2827 11 5 6.2135193094999999e-02 2.1562131599567618e+01 3.2364364950102505e+01 2.8624038805936923e+01 0 0 0
501 2 10 6.1599708230000001e-02 3.8130144490825110e+01 3.5332314713752901e+01 2.1669284614304914e+01 1 -1 -1
1606 6 10 5.8553676189000002e-02 3.3814223964333031e+01 3.3894056992301351e+01 3.1512165964069855e+01 0 0 -1
1939 8 2 -3.4184631745499999e-01 2.7434995463778357e+01 3.4341232568122905e+01 3.0597776844311475e+01 1 1 0
2909 11 5 2.4129151896000001e-02 2.3806173858849178e+01 3.0731843886654168e+01 3.0855077646501055e+01 0 0 0
1933 8 1 -3.7253391399000003e-02 2.7032134337459400e+01 3.3020948119748844e+01 2.6611055355846037e+01 1 1 0
2831 11 5 5.1556210562999999e-02 2.7988245202131619e+01 3.0006714545507425e+01 2.9194360064882261e+01 0 0 0
1961 8 1 -5.5302512302000000e-02 2.7311802207428922e+01 2.9985065315493745e+01 2.4955463295314008e+01 1 1 0
1944 8 3 1.5067359031000000e-02 2.6851191614544387e+01 3.2499415179173880e+01 2.5208678457029333e+01 1 1 0
1982 8 5 2.4129151896000001e-02 2.6457827001049601e+01 3.4409629235460258e+01 2.4218912706367288e+01 1 1 0
1934 8 1 -5.5302512302000000e-02 2.7513645564858656e+01 3.4320920236356798e+01 2.6908473341170705e+01 1 1 0
1935 8 1 -3.1393163308000002e-02 2.7660347363017447e+01 3.4763518519916964e+01 2.8236923246552198e+01 1 1 0
2924 11 2 -3.8603246252200002e-01 2.2000505561528684e+01 3.4182601666344048e+01 2.3200360073494810e+01 0 0 0
2910 11 5 2.4129151896000001e-02 2.2230429525569313e+01 3.1286271525844615e+01 3.1084598576790285e+01 0 0 0
1955 8 1 -3.7253387674000001e-02 2.7775517614697694e+01 3.1323350789457933e+01 2.5014677501345158e+01 1 1 0
1977 8 3 -5.1743496611000001e-02 2.7122104533323405e+01 3.3552134924993261e+01 2.4096477778329568e+01 1 1 0
1983 8 5 2.4129151896000001e-02 2.6942302847937658e+01 3.3107654347216901e+01 2.3118315326145755e+01 1 1 0
2830 11 5 6.5505407348999997e-02 2.7948355428566327e+01 2.8288274848640519e+01 3.0848854646138072e+01 0 0 0
485 2 8 7.9283296199000000e-02 3.8137727855946778e+01 3.4248253418999418e+01 2.1786580130877770e+01 1 -1 -1
6940 26 1 7.6316132740000001e-02 2.5803409095530842e+01 2.5123105610783490e+01 3.1706958142614692e+01 1 1 1
6533 24 5 5.1556210562999999e-02 2.4873386659728062e+01 3.2928186378430141e+01 2.1157329691056084e+01 1 0 0
2821 11 4 -9.0650946304000002e-02 2.8249842000439770e+01 2.9069291731517854e+01 2.8940659337269576e+01 0 0 0
1945 8 5 6.2135193094999999e-02 2.7759176465679811e+01 3.4963783248544992e+01 2.6155814552349156e+01 1 1 0
1940 8 3 8.3153783873000001e-02 2.8594640635064270e+01 3.3799055388607833e+01 3.1264022139588469e+01 1 1 0
1966 8 1 -3.1393163308000002e-02 2.8204759077150655e+01 2.8900792467016316e+01 2.4907308292489351e+01 1 1 0
6546 24 3 -5.1743496611000001e-02 3.0779578930856349e+01 2.7737948702990366e+01 2.1447921421664571e+01 1 0 0
1981 8 5 2.4129151896000001e-02 2.8153070195677575e+01 3.3903817971580956e+01 2.4138875575513861e+01 1 1 0
6517 24 5 6.2135193094999999e-02 3.2548473100933414e+01 2.8205411618035022e+01 2.2885002282360631e+01 1 0 0
6551 24 5 2.4129151896000001e-02 3.0652148389608914e+01 2.8358593800866963e+01 2.2339552497654037e+01 1 0 0
2187 8 7 -2.8792419957499998e-01 2.9752571032340107e+01 2.8847598592898052e+01 2.9008663345538714e+01 1 0 0
6507 24 1 -5.5302512302000000e-02 3.3069730517113257e+01 2.8860180055430284e+01 2.2309834662369934e+01 1 0 0
6516 24 5 6.4336485759000001e-02 3.4463315692971243e+01 2.8986393287458633e+01 2.3887941217688653e+01 1 0 0
1962 8 5 5.9378388866999997e-02 3.1380507827483441e+01 2.8787537964496703e+01 2.6650985144349278e+01 1 1 0
1972 8 1 7.6316132740000001e-02 2.9591378302819155e+01 2.9124909142941483e+01 2.4910637338312469e+01 1 1 0
6506 24 1 -3.1393167032999998e-02 3.4235972515378833e+01 2.9314133039976053e+01 2.2948971835872062e+01 1 0 0
2199 8 10 7.3109538084000003e-02 3.1622088951444844e+01 2.9508090193824877e+01 2.9298052630828018e+01 1 0 0
1607 6 10 5.8553676189000002e-02 3.2758711324565965e+01 3.2492787600436692e+01 3.1251901343267409e+01 0 0 -1
1620 6 10 2.5523970903000001e-02 3.4706639485879073e+01 3.4413059644874778e+01 2.9698477003915588e+01 0 0 -1
1949 8 5 5.9378388866999997e-02 2.8932146041683236e+01 3.2873973320762751e+01 3.0791459641570864e+01 1 1 0
2205 8 10 2.5523974349999999e-02 3.1636092906929257e+01 3.4246604512388743e+01 3.0348604407395516e+01 1 0 0
2208 8 10 2.6211133947999999e-02 3.1090452575002804e+01 3.0965278484858210e+01 3.1171548602761995e+01 1 0 0
2189 8 8 -3.6519783759000002e-02 3.1607342862670514e+01 3.5030553065241904e+01 2.9593916591183266e+01 1 0 0
1965 8 1 -5.5302512302000000e-02 2.9177507487066194e+01 3.1526021494926848e+01 2.4961890283542775e+01 1 1 0
1970 8 5 6.2135193094999999e-02 2.9556583358118406e+01 3.2472654804709677e+01 2.4995782360229612e+01 1 1 0
2190 8 8 -2.6692605788000000e-02 3.0367181639210116e+01 3.0207870514595204e+01 3.0871149264938737e+01 1 0 0
1960 8 1 -3.1393163308000002e-02 3.0073230969944468e+01 3.0445885010385592e+01 2.4885401170941680e+01 1 1 0
1973 8 5 6.4336485759000001e-02 3.1078070111107575e+01 3.0618235508371150e+01 2.4851677542497779e+01 1 1 0
2196 8 10 5.8541652536000001e-02 3.1411099524644847e+01 3.2883882335043033e+01 2.6883662189604891e+01 1 0 0
2195 8 10 5.8541652536000001e-02 3.0089472840831476e+01 3.3527959754883881e+01 2.7874810222569799e+01 1 0 0
2183 8 8 7.3707842058000003e-02 3.1136122427896073e+01 3.3220062156526957e+01 2.7885798812383626e+01 1 0 0
2186 8 8 1.4759956372399999e-01 3.0586440353984795e+01 2.9841641573124299e+01 2.9389204846107127e+01 1 0 0
2197 8 10 5.9258569753000000e-02 2.9415450252066663e+01 3.1429657399113463e+01 2.8501928067588462e+01 1 0 0
2198 8 10 5.9258569753000000e-02 3.0665631932173991e+01 3.0746507930150912e+01 2.7450003137570363e+01 1 0 0
2185 8 8 8.3362214988000005e-02 3.0445867765863159e+01 3.1073194527534291e+01 2.8465991140336509e+01 1 0 0
2184 8 9 -3.7397870349300000e-01 3.1330866739086652e+01 3.2146699197014392e+01 2.8823317128114923e+01 1 0 0
2194 8 10 6.1599542176999998e-02 3.3039625465289099e+01 3.4139784262727616e+01 2.8227261132797590e+01 1 0 0